# vtk DataFile Version 3.0
SWC2VTK
ASCII
DATASET UNSTRUCTURED_GRID
POINTS 58408 float
52.896946 78.796654 143.711663
52.896946 78.796654 143.711663
52.896946 78.796654 143.711663
52.896946 78.796654 143.711663
52.896946 78.796654 143.711663
52.896946 78.796654 143.711663
52.896946 78.796654 143.711663
52.896946 78.796654 143.711663
52.550633 78.870700 143.926661
52.535795 78.985882 143.638164
52.741212 79.033592 143.409593
53.046554 78.985882 143.374840
53.272954 78.870700 143.554264
53.287792 78.755518 143.842760
53.082376 78.707808 144.071332
52.777034 78.755518 144.106085
52.286739 79.081565 144.166525
52.259322 79.294394 143.633453
52.638882 79.382550 143.211108
53.203079 79.294394 143.146894
53.621414 79.081565 143.478426
53.648831 78.868736 144.011498
53.269270 78.780579 144.433843
52.705073 78.868736 144.498057
52.145438 79.397146 144.394739
52.109615 79.675221 143.698247
52.605536 79.790403 143.146427
53.342695 79.675221 143.062527
53.889275 79.397146 143.495694
53.925097 79.119072 144.192186
53.429177 79.003890 144.744007
52.692018 79.119072 144.827907
52.148242 79.769400 144.576560
52.109469 80.070386 143.822682
52.646249 80.195058 143.225396
53.444144 80.070386 143.134583
54.035758 79.769400 143.603440
54.074531 79.468414 144.357318
53.537751 79.343742 144.954604
52.739856 79.468414 145.045417
52.646249 80.195058 143.225396
52.859312 80.267307 143.638666
52.109469 80.070386 143.822682
52.523231 80.189249 144.012631
52.148242 79.769400 144.576560
52.547507 80.000800 144.484638
52.739856 79.468414 145.045417
52.917920 79.812351 144.778193
53.537751 79.343742 144.954604
53.417488 79.734293 144.721334
54.074531 79.468414 144.357318
53.753569 79.812351 144.347369
54.035758 79.769400 143.603440
53.729293 80.000800 143.875362
53.444144 80.070386 143.134583
53.358880 80.189249 143.581807
53.080172 80.663045 144.180000
53.080172 80.663045 144.180000
53.080172 80.663045 144.180000
53.080172 80.663045 144.180000
53.080172 80.663045 144.180000
53.080172 80.663045 144.180000
53.080172 80.663045 144.180000
53.080172 80.663045 144.180000
53.084604 80.612635 144.434408
53.263807 80.628391 144.359894
53.338035 80.634918 144.180000
53.263807 80.628391 144.000106
53.084604 80.612635 143.925592
52.905402 80.596878 144.000106
52.831174 80.590352 144.180000
52.905402 80.596878 144.359894
53.097227 80.469078 144.650085
53.428349 80.498192 144.512400
53.565505 80.510251 144.180000
53.428349 80.498192 143.847600
53.097227 80.469078 143.709915
52.766104 80.439964 143.847600
52.628949 80.427905 144.180000
52.766104 80.439964 144.512400
53.116117 80.254230 144.794195
53.548750 80.292269 144.614302
53.727952 80.308026 144.180000
53.548750 80.292269 143.745698
53.116117 80.254230 143.565805
52.683485 80.216191 143.745698
52.504282 80.200435 144.180000
52.683485 80.216191 144.614302
53.138400 80.000800 144.844800
53.606678 80.041973 144.650085
53.800645 80.059028 144.180000
53.606678 80.041973 143.709915
53.138400 80.000800 143.515200
52.670122 79.959627 143.709915
52.476155 79.942572 144.180000
52.670122 79.959627 144.650085
53.800645 80.059028 144.180000
53.810952 78.435875 144.180000
53.606678 80.041973 144.650085
53.655469 78.422204 144.556817
53.138400 80.000800 144.844800
53.280100 78.389200 144.712900
52.670122 79.959627 144.650085
52.904731 78.356196 144.556817
52.476155 79.942572 144.180000
52.749248 78.342525 144.180000
52.670122 79.959627 143.709915
52.904731 78.356196 143.803183
53.138400 80.000800 143.515200
53.280100 78.389200 143.647100
53.606678 80.041973 143.709915
53.655469 78.422204 143.803183
53.401995 77.261177 144.327454
53.401995 77.261177 144.327454
53.401995 77.261177 144.327454
53.401995 77.261177 144.327454
53.401995 77.261177 144.327454
53.401995 77.261177 144.327454
53.401995 77.261177 144.327454
53.401995 77.261177 144.327454
53.529869 77.294633 144.214383
53.567135 77.314805 144.337888
53.505547 77.323160 144.452718
53.381182 77.314805 144.491609
53.266891 77.294633 144.431778
53.229625 77.274462 144.308274
53.291213 77.266107 144.193443
53.415578 77.274462 144.154552
53.631044 77.389910 144.109779
53.699903 77.427182 144.337986
53.586103 77.442620 144.550165
53.356306 77.427182 144.622026
53.145125 77.389910 144.511473
53.076265 77.352638 144.283267
53.190065 77.337200 144.071087
53.419862 77.352638 143.999226
53.690118 77.532502 144.029568
53.780087 77.581200 144.327734
53.631400 77.601371 144.604960
53.331156 77.581200 144.698850
53.055234 77.532502 144.554406
52.965265 77.483804 144.256240
53.113951 77.463632 143.979014
53.414196 77.483804 143.885123
53.698097 77.700700 143.985960
53.795479 77.753410 144.308692
53.634541 77.775244 144.608759
53.309559 77.753410 144.710386
53.010903 77.700700 144.554040
52.913521 77.647990 144.231308
53.074459 77.626156 143.931241
53.399441 77.647990 143.829614
53.634541 77.775244 144.608759
53.614855 78.478308 144.584946
53.795479 77.753410 144.308692
53.807237 78.452209 144.226252
53.698097 77.700700 143.985960
53.690829 78.389200 143.840464
53.399441 77.647990 143.829614
53.333821 78.326191 143.653572
53.074459 77.626156 143.931241
52.945345 78.300092 143.775054
52.913521 77.647990 144.231308
52.752963 78.326191 144.133748
53.010903 77.700700 144.554040
52.869371 78.389200 144.519536
53.309559 77.753410 144.710386
53.226379 78.452209 144.706428
53.351911 77.862280 144.214359
53.351911 77.862280 144.214359
53.351911 77.862280 144.214359
53.351911 77.862280 144.214359
53.351911 77.862280 144.214359
53.351911 77.862280 144.214359
53.351911 77.862280 144.214359
53.351911 77.862280 144.214359
53.434464 77.902389 144.027785
53.537303 77.923931 144.143205
53.528340 77.932854 144.298775
53.412825 77.923931 144.403363
53.258426 77.902389 144.395703
53.155587 77.880847 144.280282
53.164550 77.871925 144.124713
53.280064 77.880847 144.020125
53.493516 78.016611 143.864384
53.683537 78.056415 144.077653
53.666976 78.072902 144.365108
53.453533 78.056415 144.558362
53.168241 78.016611 144.544208
52.978219 77.976807 144.330938
52.994780 77.960320 144.043483
53.208223 77.976807 143.850230
53.520077 78.187556 143.749032
53.768352 78.239563 144.027682
53.746714 78.261104 144.403260
53.467838 78.239563 144.655758
53.095085 78.187556 144.637265
52.846810 78.135550 144.358615
52.868448 78.114008 143.983037
53.147324 78.135550 143.730540
53.510104 78.389200 143.699292
53.778835 78.445491 144.000900
53.755414 78.468808 144.407423
53.453561 78.445491 144.680725
53.050096 78.389200 144.660708
52.781365 78.332909 144.359100
52.804786 78.309592 143.952577
53.106639 78.332909 143.679275
53.755414 78.468808 144.407423
54.039061 79.928018 144.543139
53.778835 78.445491 144.000900
54.085727 79.881560 143.733145
53.510104 78.389200 143.699292
53.550282 79.769400 143.132191
53.106639 78.332909 143.679275
52.746381 79.657240 143.092309
52.804786 78.309592 143.952577
52.144939 79.610782 143.636861
52.781365 78.332909 144.359100
52.098273 79.657240 144.446855
53.050096 78.389200 144.660708
52.633718 79.769400 145.047809
53.453561 78.445491 144.680725
53.437619 79.881560 145.087691
53.398198 76.836883 144.766097
53.398198 76.836883 144.766097
53.398198 76.836883 144.766097
53.398198 76.836883 144.766097
53.398198 76.836883 144.766097
53.398198 76.836883 144.766097
53.398198 76.836883 144.766097
53.398198 76.836883 144.766097
53.520707 76.853616 144.765570
53.477342 76.915384 144.819600
53.389016 76.940970 144.832207
53.307468 76.915384 144.796006
53.280469 76.853616 144.732204
53.323834 76.791847 144.678173
53.412160 76.766261 144.665566
53.493708 76.791847 144.701767
53.629347 76.901266 144.730702
53.549219 77.015400 144.830536
53.386012 77.062676 144.853831
53.235332 77.015400 144.786941
53.185444 76.901266 144.669048
53.265572 76.787132 144.569214
53.428778 76.739856 144.545919
53.579459 76.787132 144.612809
53.707577 76.972580 144.666801
53.602884 77.121703 144.797241
53.389645 77.183472 144.827677
53.192771 77.121703 144.740281
53.127589 76.972580 144.586247
53.232281 76.823457 144.455807
53.445521 76.761688 144.425370
53.642395 76.823457 144.512767
53.743487 77.056700 144.583595
53.630169 77.218110 144.724783
53.399360 77.284968 144.757727
53.186266 77.218110 144.663130
53.115713 77.056700 144.496405
53.229031 76.895290 144.355217
53.459840 76.828432 144.322273
53.672934 76.895290 144.416870
53.399360 77.284968 144.757727
53.408015 77.401496 144.695415
53.630169 77.218110 144.724783
53.668175 77.326136 144.658282
53.743487 77.056700 144.583595
53.795904 77.144200 144.499139
53.672934 76.895290 144.416870
53.716379 76.962264 144.311212
53.459840 76.828432 144.322273
53.476185 76.886904 144.204585
53.229031 76.895290 144.355217
53.216025 76.962264 144.241718
53.115713 77.056700 144.496405
53.088296 77.144200 144.400861
53.186266 77.218110 144.663130
53.167821 77.326136 144.588788
52.851988 76.294809 144.660531
52.851988 76.294809 144.660531
52.851988 76.294809 144.660531
52.851988 76.294809 144.660531
52.851988 76.294809 144.660531
52.851988 76.294809 144.660531
52.851988 76.294809 144.660531
52.851988 76.294809 144.660531
52.882207 76.309500 144.749650
52.825496 76.349944 144.733535
52.790828 76.366697 144.673293
52.798511 76.349944 144.604215
52.844044 76.309500 144.566764
52.900754 76.269055 144.582879
52.935422 76.252303 144.643121
52.927740 76.269055 144.712200
52.930100 76.351335 144.820554
52.825312 76.426067 144.790777
52.761254 76.457022 144.679465
52.775450 76.426067 144.551824
52.859584 76.351335 144.482624
52.964371 76.276603 144.512401
53.028429 76.245648 144.623713
53.014234 76.276603 144.751354
52.988376 76.413946 144.862448
52.851464 76.511587 144.823541
52.767768 76.552032 144.678105
52.786316 76.511587 144.511334
52.896242 76.413946 144.420920
53.033153 76.316304 144.459826
53.116849 76.275859 144.605262
53.098302 76.316304 144.772033
53.048163 76.487800 144.868953
52.899971 76.593487 144.826841
52.809379 76.637264 144.669423
52.829454 76.593487 144.488911
52.948437 76.487800 144.391047
53.096629 76.382113 144.433159
53.187221 76.338336 144.590577
[...]
CELL_DATA 5215
SCALARS data float 1
LOOKUP_TABLE default
0.0009587727708533077
0.0009587727708533077
0.0009587727708533077
0.0009587727708533077
0.0009587727708533077
0.0019175455417066154
0.0019175455417066154
0.0019175455417066154
0.0019175455417066154
0.0019175455417066154
0.0028763183125599234
0.0028763183125599234
0.0028763183125599234
0.0028763183125599234
0.0028763183125599234
0.003835091083413231
0.003835091083413231
0.003835091083413231
0.003835091083413231
0.003835091083413231
0.004793863854266539
0.004793863854266539
0.004793863854266539
0.004793863854266539
0.004793863854266539
0.005752636625119847
0.005752636625119847
0.005752636625119847
0.005752636625119847
0.005752636625119847
0.006711409395973154
0.006711409395973154
0.006711409395973154
0.006711409395973154
0.006711409395973154
0.007670182166826462
0.007670182166826462
0.007670182166826462
0.007670182166826462
0.007670182166826462
0.00862895493767977
0.00862895493767977
0.00862895493767977
0.00862895493767977
0.00862895493767977
0.009587727708533078
0.009587727708533078
0.009587727708533078
0.009587727708533078
0.009587727708533078
0.010546500479386385
0.010546500479386385
0.010546500479386385
0.010546500479386385
0.010546500479386385
0.011505273250239693
0.011505273250239693
0.011505273250239693
0.011505273250239693
0.011505273250239693
0.012464046021093002
0.012464046021093002
0.012464046021093002
0.012464046021093002
0.012464046021093002
0.013422818791946308
0.013422818791946308
0.013422818791946308
0.013422818791946308
0.013422818791946308
0.014381591562799617
0.014381591562799617
0.014381591562799617
0.014381591562799617
0.014381591562799617
0.015340364333652923
0.015340364333652923
0.015340364333652923
0.015340364333652923
0.015340364333652923
0.016299137104506232
0.016299137104506232
0.016299137104506232
0.016299137104506232
0.016299137104506232
0.01725790987535954
0.01725790987535954
0.01725790987535954
0.01725790987535954
0.01725790987535954
0.01821668264621285
0.01821668264621285
0.01821668264621285
0.01821668264621285
0.01821668264621285
0.019175455417066157
0.019175455417066157
0.019175455417066157
0.019175455417066157
0.019175455417066157
0.020134228187919462
0.020134228187919462
0.020134228187919462
0.020134228187919462
0.020134228187919462
0.02109300095877277
0.02109300095877277
0.02109300095877277
0.02109300095877277
0.02109300095877277
0.02205177372962608
0.02205177372962608
0.02205177372962608
0.02205177372962608
0.02205177372962608
0.023010546500479387
0.023010546500479387
0.023010546500479387
0.023010546500479387
0.023010546500479387
0.023969319271332695
0.023969319271332695
0.023969319271332695
0.023969319271332695
0.023969319271332695
0.024928092042186004
0.024928092042186004
0.024928092042186004
0.024928092042186004
0.024928092042186004
0.02588686481303931
0.02588686481303931
0.02588686481303931
0.02588686481303931
0.02588686481303931
0.026845637583892617
0.026845637583892617
0.026845637583892617
0.026845637583892617
0.026845637583892617
0.027804410354745925
0.027804410354745925
0.027804410354745925
0.027804410354745925
0.027804410354745925
0.028763183125599234
0.028763183125599234
0.028763183125599234
0.028763183125599234
0.028763183125599234
0.029721955896452542
0.029721955896452542
0.029721955896452542
0.029721955896452542
0.029721955896452542
0.030680728667305847
0.030680728667305847
0.030680728667305847
0.030680728667305847
0.030680728667305847
0.031639501438159155
0.031639501438159155
0.031639501438159155
0.031639501438159155
0.031639501438159155
0.032598274209012464
0.032598274209012464
0.032598274209012464
0.032598274209012464
0.032598274209012464
0.03355704697986577
0.03355704697986577
0.03355704697986577
0.03355704697986577
0.03355704697986577
0.03451581975071908
0.03451581975071908
0.03451581975071908
0.03451581975071908
0.03451581975071908
0.03547459252157239
0.03547459252157239
0.03547459252157239
0.03547459252157239
0.03547459252157239
0.0364333652924257
0.0364333652924257
0.0364333652924257
0.0364333652924257
0.0364333652924257
0.037392138063279005
0.037392138063279005
0.037392138063279005
0.037392138063279005
0.037392138063279005
0.038350910834132314
0.038350910834132314
0.038350910834132314
0.038350910834132314
0.038350910834132314
0.039309683604985615
0.039309683604985615
0.039309683604985615
0.039309683604985615
0.039309683604985615
0.040268456375838924
0.040268456375838924
0.040268456375838924
0.040268456375838924
0.040268456375838924
0.04122722914669223
0.04122722914669223
0.04122722914669223
0.04122722914669223
0.04122722914669223
0.04218600191754554
0.04218600191754554
0.04218600191754554
0.04218600191754554
0.04218600191754554
0.04314477468839885
0.04314477468839885
0.04314477468839885
0.04314477468839885
0.04314477468839885
0.04410354745925216
0.04410354745925216
0.04410354745925216
0.04410354745925216
0.04410354745925216
0.045062320230105465
0.045062320230105465
0.045062320230105465
0.045062320230105465
0.045062320230105465
0.046021093000958774
0.046021093000958774
0.046021093000958774
0.046021093000958774
0.046021093000958774
0.04697986577181208
0.04697986577181208
0.04697986577181208
0.04697986577181208
0.04697986577181208
0.04793863854266539
0.04793863854266539
0.04793863854266539
0.04793863854266539
0.04793863854266539
0.0488974113135187
0.0488974113135187
0.0488974113135187
0.0488974113135187
0.0488974113135187
0.04985618408437201
0.04985618408437201
0.04985618408437201
0.04985618408437201
0.04985618408437201
0.05081495685522531
0.05081495685522531
0.05081495685522531
0.05081495685522531
0.05081495685522531
0.05177372962607862
0.05177372962607862
0.05177372962607862
0.05177372962607862
0.05177372962607862
0.052732502396931925
0.052732502396931925
0.052732502396931925
0.052732502396931925
0.052732502396931925
0.053691275167785234
0.053691275167785234
0.053691275167785234
0.053691275167785234
0.053691275167785234
0.05465004793863854
0.05465004793863854
0.05465004793863854
0.05465004793863854
0.05465004793863854
0.05560882070949185
0.05560882070949185
0.05560882070949185
0.05560882070949185
0.05560882070949185
0.05656759348034516
0.05656759348034516
0.05656759348034516
0.05656759348034516
0.05656759348034516
0.05752636625119847
0.05752636625119847
0.05752636625119847
0.05752636625119847
0.05752636625119847
0.058485139022051776
0.058485139022051776
0.058485139022051776
0.058485139022051776
0.058485139022051776
0.059443911792905084
0.059443911792905084
0.059443911792905084
0.059443911792905084
0.059443911792905084
0.06040268456375839
0.06040268456375839
0.06040268456375839
0.06040268456375839
0.06040268456375839
0.061361457334611694
0.061361457334611694
0.061361457334611694
0.061361457334611694
0.061361457334611694
0.062320230105465
0.062320230105465
0.062320230105465
0.062320230105465
0.062320230105465
0.06327900287631831
0.06327900287631831
0.06327900287631831
0.06327900287631831
0.06327900287631831
0.06423777564717162
0.06423777564717162
0.06423777564717162
0.06423777564717162
0.06423777564717162
0.06519654841802493
0.06519654841802493
0.06519654841802493
0.06519654841802493
0.06519654841802493
0.06615532118887824
0.06615532118887824
0.06615532118887824
0.06615532118887824
0.06615532118887824
0.06711409395973154
0.06711409395973154
0.06711409395973154
0.06711409395973154
0.06711409395973154
0.06807286673058485
0.06807286673058485
0.06807286673058485
0.06807286673058485
0.06807286673058485
0.06903163950143816
0.06903163950143816
0.06903163950143816
0.06903163950143816
0.06903163950143816
0.06999041227229147
0.06999041227229147
0.06999041227229147
0.06999041227229147
0.06999041227229147
0.07094918504314478
0.07094918504314478
0.07094918504314478
0.07094918504314478
0.07094918504314478
0.07190795781399809
0.07190795781399809
0.07190795781399809
0.07190795781399809
0.07190795781399809
0.0728667305848514
0.0728667305848514
0.0728667305848514
0.0728667305848514
0.0728667305848514
0.0738255033557047
0.0738255033557047
0.0738255033557047
0.0738255033557047
0.0738255033557047
0.07478427612655801
0.07478427612655801
0.07478427612655801
0.07478427612655801
0.07478427612655801
0.07574304889741132
0.07574304889741132
0.07574304889741132
0.07574304889741132
0.07574304889741132
0.07670182166826463
0.07670182166826463
0.07670182166826463
0.07670182166826463
0.07670182166826463
0.07766059443911794
0.07766059443911794
0.07766059443911794
0.07766059443911794
0.07766059443911794
0.07861936720997123
0.07861936720997123
0.07861936720997123
0.07861936720997123
0.07861936720997123
0.07957813998082454
0.07957813998082454
0.07957813998082454
0.07957813998082454
0.07957813998082454
0.08053691275167785
0.08053691275167785
0.08053691275167785
0.08053691275167785
0.08053691275167785
0.08149568552253116
0.08149568552253116
0.08149568552253116
0.08149568552253116
0.08149568552253116
0.08245445829338446
0.08245445829338446
0.08245445829338446
0.08245445829338446
0.08245445829338446
0.08341323106423777
0.08341323106423777
0.08341323106423777
0.08341323106423777
0.08341323106423777
0.08437200383509108
0.08437200383509108
0.08437200383509108
0.08437200383509108
0.08437200383509108
0.08533077660594439
0.08533077660594439
0.08533077660594439
0.08533077660594439
0.08533077660594439
0.0862895493767977
0.0862895493767977
0.0862895493767977
0.0862895493767977
0.0862895493767977
0.087248322147651
0.087248322147651
0.087248322147651
0.087248322147651
0.087248322147651
0.08820709491850431
0.08820709491850431
0.08820709491850431
0.08820709491850431
0.08820709491850431
0.08916586768935762
0.08916586768935762
0.08916586768935762
0.08916586768935762
0.08916586768935762
0.09012464046021093
0.09012464046021093
0.09012464046021093
0.09012464046021093
0.09012464046021093
0.09108341323106424
0.09108341323106424
0.09108341323106424
0.09108341323106424
0.09108341323106424
0.09204218600191755
0.09204218600191755
0.09204218600191755
0.09204218600191755
0.09204218600191755
0.09300095877277086
0.09300095877277086
0.09300095877277086
0.09300095877277086
0.09300095877277086
0.09395973154362416
0.09395973154362416
0.09395973154362416
0.09395973154362416
0.09395973154362416
0.09491850431447747
0.09491850431447747
0.09491850431447747
0.09491850431447747
0.09491850431447747
0.09587727708533078
0.09587727708533078
0.09587727708533078
0.09587727708533078
0.09587727708533078
0.09683604985618409
0.09683604985618409
0.09683604985618409
0.09683604985618409
0.09683604985618409
0.0977948226270374
0.0977948226270374
0.0977948226270374
0.0977948226270374
0.0977948226270374
0.0987535953978907
0.0987535953978907
0.0987535953978907
0.0987535953978907
0.0987535953978907
0.09971236816874401
0.09971236816874401
0.09971236816874401
0.09971236816874401
0.09971236816874401
0.10067114093959731
0.10067114093959731
0.10067114093959731
0.10067114093959731
0.10067114093959731
0.10162991371045062
0.10162991371045062
0.10162991371045062
0.10162991371045062
0.10162991371045062
0.10258868648130393
0.10258868648130393
0.10258868648130393
0.10258868648130393
0.10258868648130393
0.10354745925215723
0.10354745925215723
0.10354745925215723
0.10354745925215723
0.10354745925215723
0.10450623202301054
0.10450623202301054
0.10450623202301054
0.10450623202301054
0.10450623202301054
0.10546500479386385
0.10546500479386385
0.10546500479386385
0.10546500479386385
0.10546500479386385
0.10642377756471716
0.10642377756471716
0.10642377756471716
0.10642377756471716
0.10642377756471716
0.10738255033557047
0.10738255033557047
0.10738255033557047
0.10738255033557047
0.10738255033557047
0.10834132310642378
0.10834132310642378
0.10834132310642378
0.10834132310642378
0.10834132310642378
0.10930009587727708
0.10930009587727708
0.10930009587727708
0.10930009587727708
0.10930009587727708
0.11025886864813039
0.11025886864813039
0.11025886864813039
0.11025886864813039
0.11025886864813039
0.1112176414189837
0.1112176414189837
0.1112176414189837
0.1112176414189837
0.1112176414189837
0.11217641418983701
0.11217641418983701
0.11217641418983701
0.11217641418983701
0.11217641418983701
0.11313518696069032
0.11313518696069032
0.11313518696069032
0.11313518696069032
0.11313518696069032
0.11409395973154363
0.11409395973154363
0.11409395973154363
0.11409395973154363
0.11409395973154363
0.11505273250239693
0.11505273250239693
0.11505273250239693
0.11505273250239693
0.11505273250239693
0.11601150527325024
0.11601150527325024
0.11601150527325024
0.11601150527325024
0.11601150527325024
0.11697027804410355
0.11697027804410355
0.11697027804410355
0.11697027804410355
0.11697027804410355
0.11792905081495686
0.11792905081495686
0.11792905081495686
0.11792905081495686
0.11792905081495686
0.11888782358581017
0.11888782358581017
0.11888782358581017
0.11888782358581017
0.11888782358581017
0.11984659635666348
0.11984659635666348
0.11984659635666348
0.11984659635666348
0.11984659635666348
0.12080536912751678
0.12080536912751678
0.12080536912751678
0.12080536912751678
0.12080536912751678
0.12176414189837009
0.12176414189837009
0.12176414189837009
0.12176414189837009
0.12176414189837009
0.12272291466922339
0.12272291466922339
0.12272291466922339
0.12272291466922339
0.12272291466922339
0.1236816874400767
0.1236816874400767
0.1236816874400767
0.1236816874400767
0.1236816874400767
0.12464046021093
0.12464046021093
0.12464046021093
0.12464046021093
0.12464046021093
0.12559923298178333
0.12559923298178333
0.12559923298178333
0.12559923298178333
0.12559923298178333
0.12655800575263662
0.12655800575263662
0.12655800575263662
0.12655800575263662
0.12655800575263662
0.12751677852348994
0.12751677852348994
0.12751677852348994
0.12751677852348994
0.12751677852348994
0.12847555129434324
0.12847555129434324
0.12847555129434324
0.12847555129434324
0.12847555129434324
0.12943432406519656
0.12943432406519656
0.12943432406519656
0.12943432406519656
0.12943432406519656
0.13039309683604985
0.13039309683604985
0.13039309683604985
0.13039309683604985
0.13039309683604985
0.13135186960690318
0.13135186960690318
0.13135186960690318
0.13135186960690318
0.13135186960690318
0.13231064237775647
0.13231064237775647
0.13231064237775647
0.13231064237775647
0.13231064237775647
0.1332694151486098
0.1332694151486098
0.1332694151486098
0.1332694151486098
0.1332694151486098
0.1342281879194631
0.1342281879194631
0.1342281879194631
0.1342281879194631
0.1342281879194631
0.13518696069031638
0.13518696069031638
0.13518696069031638
0.13518696069031638
0.13518696069031638
0.1361457334611697
0.1361457334611697
0.1361457334611697
0.1361457334611697
0.1361457334611697
0.137104506232023
0.137104506232023
0.137104506232023
0.137104506232023
0.137104506232023
0.13806327900287632
0.13806327900287632
0.13806327900287632
0.13806327900287632
0.13806327900287632
0.13902205177372962
0.13902205177372962
0.13902205177372962
0.13902205177372962
0.13902205177372962
0.13998082454458294
0.13998082454458294
0.13998082454458294
0.13998082454458294
0.13998082454458294
0.14093959731543623
0.14093959731543623
0.14093959731543623
0.14093959731543623
0.14093959731543623
0.14189837008628955
0.14189837008628955
0.14189837008628955
0.14189837008628955
0.14189837008628955
0.14285714285714285
0.14285714285714285
0.14285714285714285
0.14285714285714285
0.14285714285714285
0.14381591562799617
0.14381591562799617
0.14381591562799617
0.14381591562799617
0.14381591562799617
0.14477468839884947
0.14477468839884947
0.14477468839884947
0.14477468839884947
0.14477468839884947
0.1457334611697028
0.1457334611697028
0.1457334611697028
0.1457334611697028
0.1457334611697028
0.14669223394055608
0.14669223394055608
0.14669223394055608
0.14669223394055608
0.14669223394055608
0.1476510067114094
0.1476510067114094
0.1476510067114094
0.1476510067114094
0.1476510067114094
0.1486097794822627
0.1486097794822627
0.1486097794822627
0.1486097794822627
0.1486097794822627
0.14956855225311602
0.14956855225311602
0.14956855225311602
0.14956855225311602
0.14956855225311602
0.15052732502396932
0.15052732502396932
0.15052732502396932
0.15052732502396932
0.15052732502396932
0.15148609779482264
0.15148609779482264
0.15148609779482264
0.15148609779482264
0.15148609779482264
0.15244487056567593
0.15244487056567593
0.15244487056567593
0.15244487056567593
0.15244487056567593
0.15340364333652926
0.15340364333652926
0.15340364333652926
0.15340364333652926
0.15340364333652926
0.15436241610738255
0.15436241610738255
0.15436241610738255
0.15436241610738255
0.15436241610738255
0.15532118887823587
0.15532118887823587
0.15532118887823587
0.15532118887823587
0.15532118887823587
0.15627996164908917
0.15627996164908917
0.15627996164908917
0.15627996164908917
0.15627996164908917
0.15723873441994246
0.15723873441994246
0.15723873441994246
0.15723873441994246
0.15723873441994246
0.15819750719079578
0.15819750719079578
0.15819750719079578
0.15819750719079578
0.15819750719079578
0.15915627996164908
0.15915627996164908
0.15915627996164908
0.15915627996164908
0.15915627996164908
0.1601150527325024
0.1601150527325024
0.1601150527325024
0.1601150527325024
0.1601150527325024
0.1610738255033557
0.1610738255033557
0.1610738255033557
0.1610738255033557
0.1610738255033557
0.16203259827420902
0.16203259827420902
0.16203259827420902
0.16203259827420902
0.16203259827420902
0.1629913710450623
0.1629913710450623
0.1629913710450623
0.1629913710450623
0.1629913710450623
0.16395014381591563
0.16395014381591563
0.16395014381591563
0.16395014381591563
0.16395014381591563
0.16490891658676893
0.16490891658676893
0.16490891658676893
0.16490891658676893
0.16490891658676893
0.16586768935762225
0.16586768935762225
0.16586768935762225
0.16586768935762225
0.16586768935762225
0.16682646212847554
0.16682646212847554
0.16682646212847554
0.16682646212847554
0.16682646212847554
0.16778523489932887
0.16778523489932887
0.16778523489932887
0.16778523489932887
0.16778523489932887
0.16874400767018216
0.16874400767018216
0.16874400767018216
0.16874400767018216
0.16874400767018216
0.16970278044103548
0.16970278044103548
0.16970278044103548
0.16970278044103548
0.16970278044103548
0.17066155321188878
0.17066155321188878
0.17066155321188878
0.17066155321188878
0.17066155321188878
0.1716203259827421
0.1716203259827421
0.1716203259827421
0.1716203259827421
0.1716203259827421
0.1725790987535954
0.1725790987535954
0.1725790987535954
0.1725790987535954
0.1725790987535954
0.17353787152444872
0.17353787152444872
0.17353787152444872
0.17353787152444872
0.17353787152444872
0.174496644295302
0.174496644295302
0.174496644295302
0.174496644295302
0.174496644295302
0.17545541706615533
0.17545541706615533
0.17545541706615533
0.17545541706615533
0.17545541706615533
0.17641418983700863
0.17641418983700863
0.17641418983700863
0.17641418983700863
0.17641418983700863
0.17737296260786195
0.17737296260786195
0.17737296260786195
0.17737296260786195
0.17737296260786195
0.17833173537871524
0.17833173537871524
0.17833173537871524
0.17833173537871524
0.17833173537871524
0.17929050814956854
0.17929050814956854
0.17929050814956854
0.17929050814956854
0.17929050814956854
0.18024928092042186
0.18024928092042186
0.18024928092042186
0.18024928092042186
0.18024928092042186
0.18120805369127516
0.18120805369127516
0.18120805369127516
0.18120805369127516
0.18120805369127516
0.18216682646212848
0.18216682646212848
0.18216682646212848
0.18216682646212848
0.18216682646212848
0.18312559923298177
0.18312559923298177
0.18312559923298177
0.18312559923298177
0.18312559923298177
0.1840843720038351
0.1840843720038351
0.1840843720038351
0.1840843720038351
0.1840843720038351
0.1850431447746884
0.1850431447746884
0.1850431447746884
0.1850431447746884
0.1850431447746884
0.1860019175455417
0.1860019175455417
0.1860019175455417
0.1860019175455417
0.1860019175455417
0.186960690316395
0.186960690316395
0.186960690316395
0.186960690316395
0.186960690316395
0.18791946308724833
0.18791946308724833
0.18791946308724833
0.18791946308724833
0.18791946308724833
0.18887823585810162
0.18887823585810162
0.18887823585810162
0.18887823585810162
0.18887823585810162
0.18983700862895495
0.18983700862895495
0.18983700862895495
0.18983700862895495
0.18983700862895495
0.19079578139980824
0.19079578139980824
0.19079578139980824
0.19079578139980824
0.19079578139980824