# vtk DataFile Version 3.0
SWC2VTK
ASCII
DATASET UNSTRUCTURED_GRID
POINTS 61264 float
43.927409 108.658056 98.341082
43.927409 108.658056 98.341082
43.927409 108.658056 98.341082
43.927409 108.658056 98.341082
43.927409 108.658056 98.341082
43.927409 108.658056 98.341082
43.927409 108.658056 98.341082
43.927409 108.658056 98.341082
43.837047 108.676100 98.279533
43.902916 108.718426 98.251445
43.978603 108.735958 98.281167
44.019770 108.718426 98.351289
44.002302 108.676100 98.420734
43.936433 108.633774 98.448822
43.860747 108.616242 98.419100
43.819580 108.633774 98.348978
43.744973 108.727484 98.245459
43.866683 108.805693 98.193559
44.006533 108.838087 98.248479
44.082600 108.805693 98.378048
44.050325 108.727484 98.506365
43.928614 108.649276 98.558265
43.788764 108.616881 98.503345
43.712697 108.649276 98.373776
43.665203 108.804387 98.244047
43.824226 108.906571 98.176236
44.006948 108.948897 98.247993
44.106334 108.906571 98.417282
44.064165 108.804387 98.584937
43.905142 108.702203 98.652748
43.722420 108.659877 98.580991
43.623034 108.702203 98.411702
43.609883 108.895100 98.275511
43.782008 109.005703 98.202114
43.979786 109.051516 98.279783
44.087360 109.005703 98.463020
44.041717 108.895100 98.644489
43.869592 108.784497 98.717886
43.671814 108.738684 98.640217
43.564240 108.784497 98.456980
43.979786 109.051516 98.279783
43.880059 109.207729 98.396498
43.782008 109.005703 98.202114
43.711600 109.168707 98.330343
43.609883 108.895100 98.275511
43.564991 109.074500 98.392860
43.564240 108.784497 98.456980
43.526113 108.980293 98.547428
43.671814 108.738684 98.640217
43.617741 108.941271 98.703502
43.869592 108.784497 98.717886
43.786200 108.980293 98.769657
44.041717 108.895100 98.644489
43.932809 109.074500 98.707140
44.087360 109.005703 98.463020
43.971687 109.168707 98.552572
43.662353 109.276405 98.651290
43.662353 109.276405 98.651290
43.662353 109.276405 98.651290
43.662353 109.276405 98.651290
43.662353 109.276405 98.651290
43.662353 109.276405 98.651290
43.662353 109.276405 98.651290
43.662353 109.276405 98.651290
43.739320 109.261036 98.703715
43.754198 109.297087 98.644564
43.719134 109.312020 98.584837
43.654667 109.297087 98.559521
43.598562 109.261036 98.583445
43.583684 109.224984 98.642595
43.618749 109.210051 98.702323
43.683215 109.224984 98.727639
43.817746 109.217268 98.732738
43.845236 109.283883 98.623442
43.780446 109.311476 98.513081
43.661327 109.283883 98.466302
43.557659 109.217268 98.510508
43.530168 109.150654 98.619804
43.594959 109.123061 98.730165
43.714077 109.150654 98.776944
43.885690 109.151766 98.733941
43.921608 109.238802 98.591139
43.836955 109.274853 98.446945
43.681319 109.238802 98.385825
43.545870 109.151766 98.443583
43.509952 109.064729 98.586385
43.594605 109.028678 98.730579
43.750241 109.064729 98.791699
43.932809 109.074500 98.707140
43.971687 109.168707 98.552572
43.880059 109.207729 98.396498
43.711600 109.168707 98.330343
43.564991 109.074500 98.392860
43.526113 108.980293 98.547428
43.617741 108.941271 98.703502
43.786200 108.980293 98.769657
43.880059 109.207729 98.396498
43.979786 109.051516 98.279783
43.971687 109.168707 98.552572
44.087360 109.005703 98.463020
43.932809 109.074500 98.707140
44.041717 108.895100 98.644489
43.786200 108.980293 98.769657
43.869592 108.784497 98.717886
43.617741 108.941271 98.703502
43.671814 108.738684 98.640217
43.526113 108.980293 98.547428
43.564240 108.784497 98.456980
43.564991 109.074500 98.392860
43.609883 108.895100 98.275511
43.711600 109.168707 98.330343
43.782008 109.005703 98.202114
41.995427 109.857917 99.885355
41.995427 109.857917 99.885355
41.995427 109.857917 99.885355
41.995427 109.857917 99.885355
41.995427 109.857917 99.885355
41.995427 109.857917 99.885355
41.995427 109.857917 99.885355
41.995427 109.857917 99.885355
42.170662 109.852923 100.073353
42.146851 110.030306 100.001235
42.059183 110.103781 99.845837
41.959012 110.030306 99.698189
41.905017 109.852923 99.644780
41.928828 109.675539 99.716898
42.016496 109.602064 99.872296
42.116667 109.675539 100.019944
42.404043 109.838699 100.180153
42.360046 110.166461 100.046897
42.198056 110.302224 99.759758
42.012965 110.166461 99.486939
41.913196 109.838699 99.388253
41.957192 109.510937 99.521509
42.119182 109.375173 99.808647
42.304273 109.510937 100.081466
42.660040 109.817411 100.189495
42.602556 110.245652 100.015388
42.390906 110.423036 99.640223
42.149073 110.245652 99.283768
42.018718 109.817411 99.154829
42.076202 109.389169 99.328936
42.287852 109.211785 99.704100
42.529686 109.389169 100.060555
42.899681 109.792300 100.099957
42.837461 110.255826 99.911505
42.608373 110.447824 99.505430
42.346614 110.255826 99.119606
42.205519 109.792300 98.980043
42.267739 109.328774 99.168495
42.496827 109.136776 99.574570
42.758586 109.328774 99.960394
42.608373 110.447824 99.505430
42.746800 110.351122 99.419628
42.837461 110.255826 99.911505
42.948069 110.182438 99.776392
42.899681 109.792300 100.099957
43.002734 109.775200 99.941960
42.758586 109.328774 99.960394
42.878773 109.367962 99.819344
42.496827 109.136776 99.574570
42.648800 109.199278 99.480372
42.267739 109.328774 99.168495
42.447531 109.367962 99.123608
42.205519 109.792300 98.980043
42.392866 109.775200 98.958040
42.346614 110.255826 99.119606
42.516827 110.182438 99.080656
42.228406 109.236075 100.027917
42.228406 109.236075 100.027917
42.228406 109.236075 100.027917
42.228406 109.236075 100.027917
42.228406 109.236075 100.027917
42.228406 109.236075 100.027917
42.228406 109.236075 100.027917
42.228406 109.236075 100.027917
42.458517 109.270605 100.137150
42.329082 109.399882 100.198524
42.152462 109.453431 100.142215
42.032118 109.399882 100.001208
42.038547 109.270605 99.858104
42.167983 109.141328 99.796730
42.344603 109.087779 99.853039
42.464946 109.141328 99.994046
42.693847 109.368939 100.169175
42.454682 109.607812 100.282579
42.128330 109.706756 100.178533
41.905965 109.607812 99.917987
41.917844 109.368939 99.653564
42.157009 109.130065 99.540161
42.483361 109.031121 99.644206
42.705726 109.130065 99.904753
42.898569 109.516105 100.119115
42.586085 109.828208 100.267284
42.159686 109.957485 100.131342
41.869152 109.828208 99.790922
41.884673 109.516105 99.445437
42.197157 109.204002 99.297268
42.623556 109.074725 99.433210
42.914090 109.204002 99.773631
43.041517 109.689700 99.994592
42.703286 110.027518 100.154969
42.241756 110.167446 100.007826
41.927283 110.027518 99.639358
41.944083 109.689700 99.265408
42.282314 109.351882 99.105031
42.743844 109.211954 99.252174
43.058317 109.351882 99.620642
42.241756 110.167446 100.007826
42.301556 110.270046 99.917826
42.703286 110.027518 100.154969
42.763086 110.130118 100.064969
43.041517 109.689700 99.994592
43.101317 109.792300 99.904592
43.058317 109.351882 99.620642
43.118117 109.454482 99.530642
42.743844 109.211954 99.252174
42.803644 109.314554 99.162174
42.282314 109.351882 99.105031
42.342114 109.454482 99.015031
41.944083 109.689700 99.265408
42.003883 109.792300 99.175408
41.927283 110.027518 99.639358
41.987083 110.130118 99.549358
41.789383 109.742129 100.066905
41.789383 109.742129 100.066905
41.789383 109.742129 100.066905
41.789383 109.742129 100.066905
41.789383 109.742129 100.066905
41.789383 109.742129 100.066905
41.789383 109.742129 100.066905
41.789383 109.742129 100.066905
41.964918 109.738960 100.254662
41.935526 109.916874 100.185991
41.845430 109.990568 100.032093
41.747407 109.916874 99.883119
41.698877 109.738960 99.826335
41.728269 109.561046 99.895006
41.818365 109.487352 100.048904
41.916388 109.561046 100.197878
42.198759 109.729936 100.361021
42.144450 110.058678 100.234135
41.977974 110.194847 99.949768
41.796850 110.058678 99.674499
41.707179 109.729936 99.569577
41.761488 109.401194 99.696463
41.927964 109.265025 99.980830
42.109087 109.401194 100.256099
42.455305 109.716431 100.369791
42.384347 110.145952 100.204005
42.166835 110.323866 99.832462
41.930186 110.145952 99.472806
41.813025 109.716431 99.335719
41.883983 109.286909 99.501504
42.101494 109.108995 99.873047
42.338143 109.286909 100.232703
42.695500 109.700500 100.279636
42.618695 110.165411 100.100191
42.383263 110.357983 99.698036
42.127115 110.165411 99.308747
42.000300 109.700500 99.160364
42.077105 109.235589 99.339809
42.312537 109.043017 99.741964
42.568685 109.235589 100.131253
42.383263 110.357983 99.698036
42.528163 110.347183 99.608036
42.618695 110.165411 100.100191
42.763595 110.154611 100.010191
42.695500 109.700500 100.279636
42.840400 109.689700 100.189636
42.568685 109.235589 100.131253
42.713585 109.224789 100.041253
42.312537 109.043017 99.741964
42.457437 109.032217 99.651964
42.077105 109.235589 99.339809
42.222005 109.224789 99.249809
42.000300 109.700500 99.160364
42.145200 109.689700 99.070364
42.127115 110.165411 99.308747
42.272015 110.154611 99.218747
44.880927 109.612195 97.484571
44.880927 109.612195 97.484571
44.880927 109.612195 97.484571
44.880927 109.612195 97.484571
44.880927 109.612195 97.484571
44.880927 109.612195 97.484571
44.880927 109.612195 97.484571
44.880927 109.612195 97.484571
44.772843 109.588857 97.308668
44.718779 109.706670 97.395400
44.741742 109.755469 97.541744
44.828280 109.706670 97.661974
44.927700 109.588857 97.685659
44.981764 109.471044 97.598927
44.958801 109.422244 97.452583
44.872263 109.471044 97.332354
44.619902 109.522395 97.184729
44.520005 109.740085 97.344990
44.562435 109.830256 97.615399
44.722336 109.740085 97.837553
44.906041 109.522395 97.881319
45.005937 109.304705 97.721058
44.963507 109.214535 97.450650
44.803606 109.304705 97.228495
44.445388 109.422929 97.131624
44.314867 109.707355 97.341015
44.370304 109.825168 97.694320
44.579225 109.707355 97.984580
44.819246 109.422929 98.041762
44.949767 109.138503 97.832372
44.894330 109.020690 97.479066
44.685409 109.138503 97.188807
44.275869 109.305600 97.157437
44.134595 109.613460 97.384080
44.194599 109.740980 97.766495
44.420734 109.613460 98.080669
44.680531 109.305600 98.142563
[...]
CELL_DATA 5470
SCALARS data float 1
LOOKUP_TABLE default
0.0009140767824497258
0.0009140767824497258
0.0009140767824497258
0.0009140767824497258
0.0009140767824497258
0.0018281535648994515
0.0018281535648994515
0.0018281535648994515
0.0018281535648994515
0.0018281535648994515
0.002742230347349177
0.002742230347349177
0.002742230347349177
0.002742230347349177
0.002742230347349177
0.003656307129798903
0.003656307129798903
0.003656307129798903
0.003656307129798903
0.003656307129798903
0.004570383912248629
0.004570383912248629
0.004570383912248629
0.004570383912248629
0.004570383912248629
0.005484460694698354
0.005484460694698354
0.005484460694698354
0.005484460694698354
0.005484460694698354
0.006398537477148081
0.006398537477148081
0.006398537477148081
0.006398537477148081
0.006398537477148081
0.007312614259597806
0.007312614259597806
0.007312614259597806
0.007312614259597806
0.007312614259597806
0.008226691042047532
0.008226691042047532
0.008226691042047532
0.008226691042047532
0.008226691042047532
0.009140767824497258
0.009140767824497258
0.009140767824497258
0.009140767824497258
0.009140767824497258
0.010054844606946984
0.010054844606946984
0.010054844606946984
0.010054844606946984
0.010054844606946984
0.010968921389396709
0.010968921389396709
0.010968921389396709
0.010968921389396709
0.010968921389396709
0.011882998171846435
0.011882998171846435
0.011882998171846435
0.011882998171846435
0.011882998171846435
0.012797074954296161
0.012797074954296161
0.012797074954296161
0.012797074954296161
0.012797074954296161
0.013711151736745886
0.013711151736745886
0.013711151736745886
0.013711151736745886
0.013711151736745886
0.014625228519195612
0.014625228519195612
0.014625228519195612
0.014625228519195612
0.014625228519195612
0.015539305301645339
0.015539305301645339
0.015539305301645339
0.015539305301645339
0.015539305301645339
0.016453382084095063
0.016453382084095063
0.016453382084095063
0.016453382084095063
0.016453382084095063
0.01736745886654479
0.01736745886654479
0.01736745886654479
0.01736745886654479
0.01736745886654479
0.018281535648994516
0.018281535648994516
0.018281535648994516
0.018281535648994516
0.018281535648994516
0.019195612431444242
0.019195612431444242
0.019195612431444242
0.019195612431444242
0.019195612431444242
0.02010968921389397
0.02010968921389397
0.02010968921389397
0.02010968921389397
0.02010968921389397
0.02102376599634369
0.02102376599634369
0.02102376599634369
0.02102376599634369
0.02102376599634369
0.021937842778793418
0.021937842778793418
0.021937842778793418
0.021937842778793418
0.021937842778793418
0.022851919561243144
0.022851919561243144
0.022851919561243144
0.022851919561243144
0.022851919561243144
0.02376599634369287
0.02376599634369287
0.02376599634369287
0.02376599634369287
0.02376599634369287
0.024680073126142597
0.024680073126142597
0.024680073126142597
0.024680073126142597
0.024680073126142597
0.025594149908592323
0.025594149908592323
0.025594149908592323
0.025594149908592323
0.025594149908592323
0.026508226691042046
0.026508226691042046
0.026508226691042046
0.026508226691042046
0.026508226691042046
0.027422303473491772
0.027422303473491772
0.027422303473491772
0.027422303473491772
0.027422303473491772
0.0283363802559415
0.0283363802559415
0.0283363802559415
0.0283363802559415
0.0283363802559415
0.029250457038391225
0.029250457038391225
0.029250457038391225
0.029250457038391225
0.029250457038391225
0.03016453382084095
0.03016453382084095
0.03016453382084095
0.03016453382084095
0.03016453382084095
0.031078610603290677
0.031078610603290677
0.031078610603290677
0.031078610603290677
0.031078610603290677
0.031992687385740404
0.031992687385740404
0.031992687385740404
0.031992687385740404
0.031992687385740404
0.03290676416819013
0.03290676416819013
0.03290676416819013
0.03290676416819013
0.03290676416819013
0.033820840950639856
0.033820840950639856
0.033820840950639856
0.033820840950639856
0.033820840950639856
0.03473491773308958
0.03473491773308958
0.03473491773308958
0.03473491773308958
0.03473491773308958
0.0356489945155393
0.0356489945155393
0.0356489945155393
0.0356489945155393
0.0356489945155393
0.03656307129798903
0.03656307129798903
0.03656307129798903
0.03656307129798903
0.03656307129798903
0.037477148080438755
0.037477148080438755
0.037477148080438755
0.037477148080438755
0.037477148080438755
0.038391224862888484
0.038391224862888484
0.038391224862888484
0.038391224862888484
0.038391224862888484
0.03930530164533821
0.03930530164533821
0.03930530164533821
0.03930530164533821
0.03930530164533821
0.04021937842778794
0.04021937842778794
0.04021937842778794
0.04021937842778794
0.04021937842778794
0.04113345521023766
0.04113345521023766
0.04113345521023766
0.04113345521023766
0.04113345521023766
0.04204753199268738
0.04204753199268738
0.04204753199268738
0.04204753199268738
0.04204753199268738
0.04296160877513711
0.04296160877513711
0.04296160877513711
0.04296160877513711
0.04296160877513711
0.043875685557586835
0.043875685557586835
0.043875685557586835
0.043875685557586835
0.043875685557586835
0.044789762340036565
0.044789762340036565
0.044789762340036565
0.044789762340036565
0.044789762340036565
0.04570383912248629
0.04570383912248629
0.04570383912248629
0.04570383912248629
0.04570383912248629
0.04661791590493602
0.04661791590493602
0.04661791590493602
0.04661791590493602
0.04661791590493602
0.04753199268738574
0.04753199268738574
0.04753199268738574
0.04753199268738574
0.04753199268738574
0.048446069469835464
0.048446069469835464
0.048446069469835464
0.048446069469835464
0.048446069469835464
0.04936014625228519
0.04936014625228519
0.04936014625228519
0.04936014625228519
0.04936014625228519
0.050274223034734916
0.050274223034734916
0.050274223034734916
0.050274223034734916
0.050274223034734916
0.051188299817184646
0.051188299817184646
0.051188299817184646
0.051188299817184646
0.051188299817184646
0.05210237659963437
0.05210237659963437
0.05210237659963437
0.05210237659963437
0.05210237659963437
0.05301645338208409
0.05301645338208409
0.05301645338208409
0.05301645338208409
0.05301645338208409
0.05393053016453382
0.05393053016453382
0.05393053016453382
0.05393053016453382
0.05393053016453382
0.054844606946983544
0.054844606946983544
0.054844606946983544
0.054844606946983544
0.054844606946983544
0.055758683729433274
0.055758683729433274
0.055758683729433274
0.055758683729433274
0.055758683729433274
0.056672760511883
0.056672760511883
0.056672760511883
0.056672760511883
0.056672760511883
0.05758683729433273
0.05758683729433273
0.05758683729433273
0.05758683729433273
0.05758683729433273
0.05850091407678245
0.05850091407678245
0.05850091407678245
0.05850091407678245
0.05850091407678245
0.05941499085923217
0.05941499085923217
0.05941499085923217
0.05941499085923217
0.05941499085923217
0.0603290676416819
0.0603290676416819
0.0603290676416819
0.0603290676416819
0.0603290676416819
0.061243144424131625
0.061243144424131625
0.061243144424131625
0.061243144424131625
0.061243144424131625
0.062157221206581355
0.062157221206581355
0.062157221206581355
0.062157221206581355
0.062157221206581355
0.06307129798903108
0.06307129798903108
0.06307129798903108
0.06307129798903108
0.06307129798903108
0.06398537477148081
0.06398537477148081
0.06398537477148081
0.06398537477148081
0.06398537477148081
0.06489945155393052
0.06489945155393052
0.06489945155393052
0.06489945155393052
0.06489945155393052
0.06581352833638025
0.06581352833638025
0.06581352833638025
0.06581352833638025
0.06581352833638025
0.06672760511882998
0.06672760511882998
0.06672760511882998
0.06672760511882998
0.06672760511882998
0.06764168190127971
0.06764168190127971
0.06764168190127971
0.06764168190127971
0.06764168190127971
0.06855575868372943
0.06855575868372943
0.06855575868372943
0.06855575868372943
0.06855575868372943
0.06946983546617916
0.06946983546617916
0.06946983546617916
0.06946983546617916
0.06946983546617916
0.07038391224862889
0.07038391224862889
0.07038391224862889
0.07038391224862889
0.07038391224862889
0.0712979890310786
0.0712979890310786
0.0712979890310786
0.0712979890310786
0.0712979890310786
0.07221206581352833
0.07221206581352833
0.07221206581352833
0.07221206581352833
0.07221206581352833
0.07312614259597806
0.07312614259597806
0.07312614259597806
0.07312614259597806
0.07312614259597806
0.0740402193784278
0.0740402193784278
0.0740402193784278
0.0740402193784278
0.0740402193784278
0.07495429616087751
0.07495429616087751
0.07495429616087751
0.07495429616087751
0.07495429616087751
0.07586837294332724
0.07586837294332724
0.07586837294332724
0.07586837294332724
0.07586837294332724
0.07678244972577697
0.07678244972577697
0.07678244972577697
0.07678244972577697
0.07678244972577697
0.07769652650822668
0.07769652650822668
0.07769652650822668
0.07769652650822668
0.07769652650822668
0.07861060329067641
0.07861060329067641
0.07861060329067641
0.07861060329067641
0.07861060329067641
0.07952468007312614
0.07952468007312614
0.07952468007312614
0.07952468007312614
0.07952468007312614
0.08043875685557587
0.08043875685557587
0.08043875685557587
0.08043875685557587
0.08043875685557587
0.08135283363802559
0.08135283363802559
0.08135283363802559
0.08135283363802559
0.08135283363802559
0.08226691042047532
0.08226691042047532
0.08226691042047532
0.08226691042047532
0.08226691042047532
0.08318098720292505
0.08318098720292505
0.08318098720292505
0.08318098720292505
0.08318098720292505
0.08409506398537477
0.08409506398537477
0.08409506398537477
0.08409506398537477
0.08409506398537477
0.0850091407678245
0.0850091407678245
0.0850091407678245
0.0850091407678245
0.0850091407678245
0.08592321755027423
0.08592321755027423
0.08592321755027423
0.08592321755027423
0.08592321755027423
0.08683729433272395
0.08683729433272395
0.08683729433272395
0.08683729433272395
0.08683729433272395
0.08775137111517367
0.08775137111517367
0.08775137111517367
0.08775137111517367
0.08775137111517367
0.0886654478976234
0.0886654478976234
0.0886654478976234
0.0886654478976234
0.0886654478976234
0.08957952468007313
0.08957952468007313
0.08957952468007313
0.08957952468007313
0.08957952468007313
0.09049360146252285
0.09049360146252285
0.09049360146252285
0.09049360146252285
0.09049360146252285
0.09140767824497258
0.09140767824497258
0.09140767824497258
0.09140767824497258
0.09140767824497258
0.0923217550274223
0.0923217550274223
0.0923217550274223
0.0923217550274223
0.0923217550274223
0.09323583180987204
0.09323583180987204
0.09323583180987204
0.09323583180987204
0.09323583180987204
0.09414990859232175
0.09414990859232175
0.09414990859232175
0.09414990859232175
0.09414990859232175
0.09506398537477148
0.09506398537477148
0.09506398537477148
0.09506398537477148
0.09506398537477148
0.09597806215722121
0.09597806215722121
0.09597806215722121
0.09597806215722121
0.09597806215722121
0.09689213893967093
0.09689213893967093
0.09689213893967093
0.09689213893967093
0.09689213893967093
0.09780621572212066
0.09780621572212066
0.09780621572212066
0.09780621572212066
0.09780621572212066
0.09872029250457039
0.09872029250457039
0.09872029250457039
0.09872029250457039
0.09872029250457039
0.09963436928702012
0.09963436928702012
0.09963436928702012
0.09963436928702012
0.09963436928702012
0.10054844606946983
0.10054844606946983
0.10054844606946983
0.10054844606946983
0.10054844606946983
0.10146252285191956
0.10146252285191956
0.10146252285191956
0.10146252285191956
0.10146252285191956
0.10237659963436929
0.10237659963436929
0.10237659963436929
0.10237659963436929
0.10237659963436929
0.10329067641681901
0.10329067641681901
0.10329067641681901
0.10329067641681901
0.10329067641681901
0.10420475319926874
0.10420475319926874
0.10420475319926874
0.10420475319926874
0.10420475319926874
0.10511882998171847
0.10511882998171847
0.10511882998171847
0.10511882998171847
0.10511882998171847
0.10603290676416818
0.10603290676416818
0.10603290676416818
0.10603290676416818
0.10603290676416818
0.10694698354661791
0.10694698354661791
0.10694698354661791
0.10694698354661791
0.10694698354661791
0.10786106032906764
0.10786106032906764
0.10786106032906764
0.10786106032906764
0.10786106032906764
0.10877513711151737
0.10877513711151737
0.10877513711151737
0.10877513711151737
0.10877513711151737
0.10968921389396709
0.10968921389396709
0.10968921389396709
0.10968921389396709
0.10968921389396709
0.11060329067641682
0.11060329067641682
0.11060329067641682
0.11060329067641682
0.11060329067641682
0.11151736745886655
0.11151736745886655
0.11151736745886655
0.11151736745886655
0.11151736745886655
0.11243144424131626
0.11243144424131626
0.11243144424131626
0.11243144424131626
0.11243144424131626
0.113345521023766
0.113345521023766
0.113345521023766
0.113345521023766
0.113345521023766
0.11425959780621572
0.11425959780621572
0.11425959780621572
0.11425959780621572
0.11425959780621572
0.11517367458866545
0.11517367458866545
0.11517367458866545
0.11517367458866545
0.11517367458866545
0.11608775137111517
0.11608775137111517
0.11608775137111517
0.11608775137111517
0.11608775137111517
0.1170018281535649
0.1170018281535649
0.1170018281535649
0.1170018281535649
0.1170018281535649
0.11791590493601463
0.11791590493601463
0.11791590493601463
0.11791590493601463
0.11791590493601463
0.11882998171846434
0.11882998171846434
0.11882998171846434
0.11882998171846434
0.11882998171846434
0.11974405850091407
0.11974405850091407
0.11974405850091407
0.11974405850091407
0.11974405850091407
0.1206581352833638
0.1206581352833638
0.1206581352833638
0.1206581352833638
0.1206581352833638
0.12157221206581353
0.12157221206581353
0.12157221206581353
0.12157221206581353
0.12157221206581353
0.12248628884826325
0.12248628884826325
0.12248628884826325
0.12248628884826325
0.12248628884826325
0.12340036563071298
0.12340036563071298
0.12340036563071298
0.12340036563071298
0.12340036563071298
0.12431444241316271
0.12431444241316271
0.12431444241316271
0.12431444241316271
0.12431444241316271
0.12522851919561243
0.12522851919561243
0.12522851919561243
0.12522851919561243
0.12522851919561243
0.12614259597806216
0.12614259597806216
0.12614259597806216
0.12614259597806216
0.12614259597806216
0.12705667276051189
0.12705667276051189
0.12705667276051189
0.12705667276051189
0.12705667276051189
0.12797074954296161
0.12797074954296161
0.12797074954296161
0.12797074954296161
0.12797074954296161
0.12888482632541134
0.12888482632541134
0.12888482632541134
0.12888482632541134
0.12888482632541134
0.12979890310786105
0.12979890310786105
0.12979890310786105
0.12979890310786105
0.12979890310786105
0.13071297989031078
0.13071297989031078
0.13071297989031078
0.13071297989031078
0.13071297989031078
0.1316270566727605
0.1316270566727605
0.1316270566727605
0.1316270566727605
0.1316270566727605
0.13254113345521024
0.13254113345521024
0.13254113345521024
0.13254113345521024
0.13254113345521024
0.13345521023765997
0.13345521023765997
0.13345521023765997
0.13345521023765997
0.13345521023765997
0.1343692870201097
0.1343692870201097
0.1343692870201097
0.1343692870201097
0.1343692870201097
0.13528336380255943
0.13528336380255943
0.13528336380255943
0.13528336380255943
0.13528336380255943
0.13619744058500913
0.13619744058500913
0.13619744058500913
0.13619744058500913
0.13619744058500913
0.13711151736745886
0.13711151736745886
0.13711151736745886
0.13711151736745886
0.13711151736745886
0.1380255941499086
0.1380255941499086
0.1380255941499086
0.1380255941499086
0.1380255941499086
0.13893967093235832
0.13893967093235832
0.13893967093235832
0.13893967093235832
0.13893967093235832
0.13985374771480805
0.13985374771480805
0.13985374771480805
0.13985374771480805
0.13985374771480805
0.14076782449725778
0.14076782449725778
0.14076782449725778
0.14076782449725778
0.14076782449725778
0.1416819012797075
0.1416819012797075
0.1416819012797075
0.1416819012797075
0.1416819012797075
0.1425959780621572
0.1425959780621572
0.1425959780621572
0.1425959780621572
0.1425959780621572
0.14351005484460694
0.14351005484460694
0.14351005484460694
0.14351005484460694
0.14351005484460694
0.14442413162705667
0.14442413162705667
0.14442413162705667
0.14442413162705667
0.14442413162705667
0.1453382084095064
0.1453382084095064
0.1453382084095064
0.1453382084095064
0.1453382084095064
0.14625228519195613
0.14625228519195613
0.14625228519195613
0.14625228519195613
0.14625228519195613
0.14716636197440586
0.14716636197440586
0.14716636197440586
0.14716636197440586
0.14716636197440586
0.1480804387568556
0.1480804387568556
0.1480804387568556
0.1480804387568556
0.1480804387568556
0.1489945155393053
0.1489945155393053
0.1489945155393053
0.1489945155393053
0.1489945155393053
0.14990859232175502
0.14990859232175502
0.14990859232175502
0.14990859232175502
0.14990859232175502
0.15082266910420475
0.15082266910420475
0.15082266910420475
0.15082266910420475
0.15082266910420475
0.15173674588665448
0.15173674588665448
0.15173674588665448
0.15173674588665448
0.15173674588665448
0.1526508226691042
0.1526508226691042
0.1526508226691042
0.1526508226691042
0.1526508226691042
0.15356489945155394
0.15356489945155394
0.15356489945155394
0.15356489945155394
0.15356489945155394
0.15447897623400367
0.15447897623400367
0.15447897623400367
0.15447897623400367
0.15447897623400367
0.15539305301645337
0.15539305301645337
0.15539305301645337
0.15539305301645337
0.15539305301645337
0.1563071297989031
0.1563071297989031
0.1563071297989031
0.1563071297989031
0.1563071297989031
0.15722120658135283
0.15722120658135283
0.15722120658135283
0.15722120658135283
0.15722120658135283
0.15813528336380256
0.15813528336380256
0.15813528336380256
0.15813528336380256
0.15813528336380256
0.1590493601462523
0.1590493601462523
0.1590493601462523
0.1590493601462523
0.1590493601462523
0.15996343692870202
0.15996343692870202
0.15996343692870202
0.15996343692870202
0.15996343692870202
0.16087751371115175
0.16087751371115175
0.16087751371115175
0.16087751371115175
0.16087751371115175
0.16179159049360145
0.16179159049360145
0.16179159049360145
0.16179159049360145
0.16179159049360145
0.16270566727605118
0.16270566727605118
0.16270566727605118
0.16270566727605118
0.16270566727605118
0.1636197440585009
0.1636197440585009
0.1636197440585009
0.1636197440585009
0.1636197440585009
0.16453382084095064
0.16453382084095064
0.16453382084095064
0.16453382084095064
0.16453382084095064
0.16544789762340037
0.16544789762340037
0.16544789762340037
0.16544789762340037
0.16544789762340037
0.1663619744058501
0.1663619744058501
0.1663619744058501
0.1663619744058501
0.1663619744058501
0.16727605118829983
0.16727605118829983
0.16727605118829983
0.16727605118829983
0.16727605118829983
0.16819012797074953
0.16819012797074953
0.16819012797074953
0.16819012797074953
0.16819012797074953
0.16910420475319926
0.16910420475319926
0.16910420475319926
0.16910420475319926
0.16910420475319926
0.170018281535649
0.170018281535649
0.170018281535649
0.170018281535649
0.170018281535649
0.17093235831809872
0.17093235831809872
0.17093235831809872
0.17093235831809872
0.17093235831809872
0.17184643510054845
0.17184643510054845
0.17184643510054845
0.17184643510054845
0.17184643510054845
0.17276051188299818
0.17276051188299818
0.17276051188299818
0.17276051188299818
0.17276051188299818
0.1736745886654479
0.1736745886654479
0.1736745886654479
0.1736745886654479
0.1736745886654479
0.1745886654478976
0.1745886654478976
0.1745886654478976
0.1745886654478976
0.1745886654478976
0.17550274223034734
0.17550274223034734
0.17550274223034734
0.17550274223034734
0.17550274223034734
0.17641681901279707
0.17641681901279707
0.17641681901279707
0.17641681901279707
0.17641681901279707
0.1773308957952468
0.1773308957952468
0.1773308957952468
0.1773308957952468
0.1773308957952468
0.17824497257769653
0.17824497257769653
0.17824497257769653
0.17824497257769653
0.17824497257769653
0.17915904936014626
0.17915904936014626
0.17915904936014626
0.17915904936014626
0.17915904936014626
0.180073126142596
0.180073126142596
0.180073126142596
0.180073126142596
0.180073126142596
0.1809872029250457
0.1809872029250457
0.1809872029250457
0.1809872029250457
0.1809872029250457
0.18190127970749542
0.18190127970749542
0.18190127970749542
0.18190127970749542
0.18190127970749542