# vtk DataFile Version 3.0
SWC2VTK
ASCII
DATASET UNSTRUCTURED_GRID
POINTS 90776 float
56.177258 57.830565 134.409805
56.177258 57.830565 134.409805
56.177258 57.830565 134.409805
56.177258 57.830565 134.409805
56.177258 57.830565 134.409805
56.177258 57.830565 134.409805
56.177258 57.830565 134.409805
56.177258 57.830565 134.409805
56.271119 57.816996 134.620126
56.302802 57.969556 134.544524
56.285407 58.032748 134.384217
56.229124 57.969556 134.233112
56.166923 57.816996 134.179722
56.135240 57.664436 134.255324
56.152635 57.601243 134.415631
56.208918 57.664436 134.566736
56.434217 57.778353 134.778665
56.492759 58.060247 134.638972
56.460618 58.177011 134.342764
56.356620 58.060247 134.063557
56.241687 57.778353 133.964906
56.183144 57.496459 134.104600
56.215285 57.379694 134.400808
56.319283 57.496459 134.680015
56.641720 57.720519 134.861288
56.718210 58.088832 134.678769
56.676215 58.241392 134.291755
56.540335 58.088832 133.926954
56.390168 57.720519 133.798060
56.313678 57.352207 133.980579
56.355673 57.199647 134.367593
56.491552 57.352207 134.732395
56.862039 57.652300 134.855414
56.944831 58.050958 134.657858
56.899376 58.216088 134.238957
56.752301 58.050958 133.844099
56.589761 57.652300 133.704586
56.506969 57.253642 133.902142
56.552424 57.088512 134.321043
56.699499 57.253642 134.715901
56.899376 58.216088 134.238957
57.169377 57.733697 134.175076
56.944831 58.050958 134.657858
57.185905 57.673654 134.327391
56.862039 57.652300 134.855414
57.155801 57.528700 134.399224
56.699499 57.253642 134.715901
57.096700 57.383746 134.348496
56.552424 57.088512 134.321043
57.043223 57.323703 134.204924
56.506969 57.253642 133.902142
57.026695 57.383746 134.052609
56.589761 57.652300 133.704586
57.056799 57.528700 133.980776
56.752301 58.050958 133.844099
57.115900 57.673654 134.031504
57.126600 55.383497 135.411680
57.126600 55.383497 135.411680
57.126600 55.383497 135.411680
57.126600 55.383497 135.411680
57.126600 55.383497 135.411680
57.126600 55.383497 135.411680
57.126600 55.383497 135.411680
57.126600 55.383497 135.411680
57.787035 55.506903 135.366641
57.593598 55.667011 135.805336
57.126600 55.733330 135.987049
56.659602 55.667011 135.805336
56.466165 55.506903 135.366641
56.659602 55.346796 134.927947
57.126600 55.280477 134.746233
57.593598 55.346796 134.927947
58.346925 55.858336 135.238381
57.989500 56.154176 136.048983
57.126600 56.276717 136.384745
56.263700 56.154176 136.048983
55.906275 55.858336 135.238381
56.263700 55.562496 134.427779
57.126600 55.439955 134.092017
57.989500 55.562496 134.427779
58.721031 56.384292 135.046426
58.254033 56.770826 136.105528
57.126600 56.930933 136.544223
55.999167 56.770826 136.105528
55.532169 56.384292 135.046426
55.999167 55.997759 133.987324
57.126600 55.837651 133.548630
58.254033 55.997759 133.987324
58.852400 57.004700 134.820000
58.346925 57.423081 135.966364
57.126600 57.596380 136.441203
55.906275 57.423081 135.966364
55.400800 57.004700 134.820000
55.906275 56.586319 133.673636
57.126600 56.413020 133.198797
58.346925 56.586319 133.673636
57.126600 57.596380 136.441203
57.126600 57.808799 136.257546
58.346925 57.423081 135.966364
58.276426 57.645511 135.810138
58.852400 57.004700 134.820000
58.752700 57.251300 134.730000
58.346925 56.586319 133.673636
58.276426 56.857089 133.649862
57.126600 56.413020 133.198797
57.126600 56.693801 133.202454
55.906275 56.586319 133.673636
55.976774 56.857089 133.649862
55.400800 57.004700 134.820000
55.500500 57.251300 134.730000
55.906275 57.423081 135.966364
55.976774 57.645511 135.810138
59.232832 55.975557 135.427762
59.232832 55.975557 135.427762
59.232832 55.975557 135.427762
59.232832 55.975557 135.427762
59.232832 55.975557 135.427762
59.232832 55.975557 135.427762
59.232832 55.975557 135.427762
59.232832 55.975557 135.427762
59.315133 56.042295 134.629784
59.478968 56.547648 134.917737
59.418609 56.756971 135.481368
59.169415 56.547648 135.990510
58.877359 56.042295 136.146915
58.713525 55.536943 135.858962
58.773884 55.327619 135.295330
59.023078 55.536943 134.786188
59.111735 56.232349 133.874467
59.414461 57.166119 134.406535
59.302933 57.552899 135.447990
58.842482 57.166119 136.388761
58.302834 56.232349 136.677758
58.000107 55.298579 136.145691
58.111635 54.911799 135.104236
58.572086 55.298579 134.163464
58.653601 56.516785 133.276800
59.049132 57.736814 133.971981
58.903414 58.242166 135.332707
58.301805 57.736814 136.561884
57.596721 56.516785 136.939477
57.201190 55.296756 136.244297
57.346908 54.791404 134.883571
57.948517 55.296756 133.654394
58.010479 56.852300 132.927774
58.438599 58.172850 133.680231
58.280875 58.719839 135.153071
57.629698 58.172850 136.483523
56.866521 56.852300 136.892226
56.438401 55.531750 136.139769
56.596125 54.984761 134.666929
57.247302 55.531750 133.336477
58.280875 58.719839 135.153071
57.831253 58.566912 135.023331
58.438599 58.172850 133.680231
57.963191 58.109351 133.791288
58.010479 56.852300 132.927774
57.605065 57.004700 133.161851
57.247302 55.531750 133.336477
56.966661 55.900049 133.503736
56.596125 54.984761 134.666929
56.421947 55.442488 134.616669
56.438401 55.531750 136.139769
56.290009 55.900049 135.848712
56.866521 56.852300 136.892226
56.648135 57.004700 136.478149
57.629698 58.172850 136.483523
57.286539 58.109351 136.136264
54.000802 56.417868 135.837555
54.000802 56.417868 135.837555
54.000802 56.417868 135.837555
54.000802 56.417868 135.837555
54.000802 56.417868 135.837555
54.000802 56.417868 135.837555
54.000802 56.417868 135.837555
54.000802 56.417868 135.837555
54.358068 56.392956 136.860644
54.402004 57.139470 136.539906
54.332715 57.448687 135.790460
54.190790 57.139470 135.051319
54.059366 56.392956 134.755464
54.015430 55.646442 135.076201
54.084719 55.337226 135.825648
54.226644 55.646442 136.564788
55.076774 56.322014 137.668975
55.157957 57.701392 137.076330
55.029929 58.272749 135.691533
54.767685 57.701392 134.325780
54.524846 56.322014 133.779110
54.443662 54.942636 134.371755
54.571691 54.371278 135.756552
54.833934 54.942636 137.122305
56.047503 56.215840 138.139488
56.153575 58.018084 137.365160
55.986297 58.764598 135.555835
55.643660 58.018084 133.771392
55.326375 56.215840 133.057134
55.220304 54.413596 133.831462
55.387581 53.667082 135.640786
55.730218 54.413596 137.425229
57.122472 56.090600 138.200550
57.237283 58.041335 137.362423
57.056223 58.849356 135.404025
56.685355 58.041335 133.472558
56.341928 56.090600 132.699450
56.227117 54.139865 133.537577
56.408177 53.331844 135.495975
56.779045 54.139865 137.427442
57.056223 58.849356 135.404025
57.671803 58.613974 135.316681
57.237283 58.041335 137.362423
57.842402 57.852635 137.161936
57.122472 56.090600 138.200550
57.734225 56.014600 137.951642
56.779045 54.139865 137.427442
57.410639 54.176565 137.223199
56.408177 53.331844 135.495975
57.061197 53.415226 135.403319
56.227117 54.139865 133.537577
56.890598 54.176565 133.558064
56.341928 56.090600 132.699450
56.998775 56.014600 132.768358
56.685355 58.041335 133.472558
57.322361 57.852635 133.496801
60.529452 55.760857 135.840485
60.529452 55.760857 135.840485
60.529452 55.760857 135.840485
60.529452 55.760857 135.840485
60.529452 55.760857 135.840485
60.529452 55.760857 135.840485
60.529452 55.760857 135.840485
60.529452 55.760857 135.840485
60.422443 55.780172 134.695227
60.456939 56.575043 135.030990
60.403618 56.904290 135.827545
60.293712 56.575043 136.618282
60.191605 55.780172 136.939997
60.157108 54.985301 136.604234
60.210430 54.656054 135.807679
60.320335 54.985301 135.016942
59.886869 55.835177 133.678578
59.950611 57.303907 134.298987
59.852085 57.912275 135.770829
59.649006 57.303907 137.231920
59.460336 55.835177 137.826372
59.396594 54.366446 137.205964
59.495120 53.758078 135.734121
59.698199 54.366446 134.273030
59.004267 55.917497 132.945314
59.087549 57.836486 133.755917
58.958819 58.631357 135.678971
58.693484 57.836486 137.587979
58.446975 55.917497 138.364668
58.363692 53.998508 137.554065
58.492422 53.203637 135.631010
58.757757 53.998508 133.722003
57.909004 56.014600 132.607067
57.999149 58.091699 133.484457
57.859812 58.952061 135.565956
57.572616 58.091699 137.632251
57.305796 56.014600 138.472933
57.215651 53.937501 137.595543
57.354988 53.077139 135.514044
57.642184 53.937501 133.447749
57.859812 58.952061 135.565956
56.970033 58.858393 135.474457
57.999149 58.091699 133.484457
57.101321 58.047725 133.513185
57.909004 56.014600 132.607067
57.016383 56.090600 132.686473
57.642184 53.937501 133.447749
56.764975 54.133475 133.478598
57.354988 53.077139 135.514044
56.494367 53.322807 135.425543
57.215651 53.937501 137.595543
56.363079 54.133475 137.386815
57.305796 56.014600 138.472933
56.448017 56.090600 138.213527
57.572616 58.091699 137.632251
56.699425 58.047725 137.421402
60.790085 54.100381 140.024627
60.790085 54.100381 140.024627
60.790085 54.100381 140.024627
60.790085 54.100381 140.024627
60.790085 54.100381 140.024627
60.790085 54.100381 140.024627
60.790085 54.100381 140.024627
60.790085 54.100381 140.024627
61.319412 54.176496 138.426868
61.318689 55.313233 138.981372
60.844933 55.784086 140.055383
60.175666 55.313233 141.019762
59.702934 54.176496 141.309588
59.703658 53.039758 140.755085
60.177413 52.568906 139.681073
60.846681 53.039758 138.716694
61.210331 54.393251 136.759555
61.208993 56.493668 137.784144
60.333608 57.363690 139.768658
59.096963 56.493668 141.550598
58.223468 54.393251 142.086126
58.224806 52.292833 141.061538
59.100192 51.422812 139.077023
60.336836 52.292833 137.295084
60.479446 54.717648 135.276522
60.477699 57.461975 136.615211
59.333953 58.598713 139.208104
57.718198 57.461975 141.536320
56.576923 54.717648 142.236022
56.578670 51.973320 140.897333
57.722417 50.836582 138.304439
59.338171 51.973320 135.976223
59.238030 55.100300 134.203546
59.236139 58.070739 135.652532
57.998157 59.301135 138.459060
56.249277 58.070739 140.979103
55.013970 55.100300 141.736454
55.015861 52.129861 140.287468
56.253843 50.899465 137.480940
[...]
CELL_DATA 8105
SCALARS data float 1
LOOKUP_TABLE default
0.0012330456226880395
0.0012330456226880395
0.0012330456226880395
0.0012330456226880395
0.0012330456226880395
0.0018495684340320592
0.0018495684340320592
0.0018495684340320592
0.0018495684340320592
0.0018495684340320592
0.002466091245376079
0.002466091245376079
0.002466091245376079
0.002466091245376079
0.002466091245376079
0.0030826140567200987
0.0030826140567200987
0.0030826140567200987
0.0030826140567200987
0.0030826140567200987
0.0036991368680641184
0.0036991368680641184
0.0036991368680641184
0.0036991368680641184
0.0036991368680641184
0.004315659679408138
0.004315659679408138
0.004315659679408138
0.004315659679408138
0.004315659679408138
0.004932182490752158
0.004932182490752158
0.004932182490752158
0.004932182490752158
0.004932182490752158
0.005548705302096177
0.005548705302096177
0.005548705302096177
0.005548705302096177
0.005548705302096177
0.006165228113440197
0.006165228113440197
0.006165228113440197
0.006165228113440197
0.006165228113440197
0.006781750924784217
0.006781750924784217
0.006781750924784217
0.006781750924784217
0.006781750924784217
0.007398273736128237
0.007398273736128237
0.007398273736128237
0.007398273736128237
0.007398273736128237
0.008014796547472256
0.008014796547472256
0.008014796547472256
0.008014796547472256
0.008014796547472256
0.008631319358816275
0.008631319358816275
0.008631319358816275
0.008631319358816275
0.008631319358816275
0.009247842170160296
0.009247842170160296
0.009247842170160296
0.009247842170160296
0.009247842170160296
0.009864364981504316
0.009864364981504316
0.009864364981504316
0.009864364981504316
0.009864364981504316
0.010480887792848335
0.010480887792848335
0.010480887792848335
0.010480887792848335
0.010480887792848335
0.011097410604192354
0.011097410604192354
0.011097410604192354
0.011097410604192354
0.011097410604192354
0.011713933415536375
0.011713933415536375
0.011713933415536375
0.011713933415536375
0.011713933415536375
0.012330456226880395
0.012330456226880395
0.012330456226880395
0.012330456226880395
0.012330456226880395
0.012946979038224414
0.012946979038224414
0.012946979038224414
0.012946979038224414
0.012946979038224414
0.013563501849568433
0.013563501849568433
0.013563501849568433
0.013563501849568433
0.013563501849568433
0.014180024660912454
0.014180024660912454
0.014180024660912454
0.014180024660912454
0.014180024660912454
0.014796547472256474
0.014796547472256474
0.014796547472256474
0.014796547472256474
0.014796547472256474
0.015413070283600493
0.015413070283600493
0.015413070283600493
0.015413070283600493
0.015413070283600493
0.016029593094944512
0.016029593094944512
0.016029593094944512
0.016029593094944512
0.016029593094944512
0.016646115906288533
0.016646115906288533
0.016646115906288533
0.016646115906288533
0.016646115906288533
0.01726263871763255
0.01726263871763255
0.01726263871763255
0.01726263871763255
0.01726263871763255
0.017879161528976572
0.017879161528976572
0.017879161528976572
0.017879161528976572
0.017879161528976572
0.018495684340320593
0.018495684340320593
0.018495684340320593
0.018495684340320593
0.018495684340320593
0.01911220715166461
0.01911220715166461
0.01911220715166461
0.01911220715166461
0.01911220715166461
0.01972872996300863
0.01972872996300863
0.01972872996300863
0.01972872996300863
0.01972872996300863
0.020345252774352653
0.020345252774352653
0.020345252774352653
0.020345252774352653
0.020345252774352653
0.02096177558569667
0.02096177558569667
0.02096177558569667
0.02096177558569667
0.02096177558569667
0.02157829839704069
0.02157829839704069
0.02157829839704069
0.02157829839704069
0.02157829839704069
0.02219482120838471
0.02219482120838471
0.02219482120838471
0.02219482120838471
0.02219482120838471
0.02281134401972873
0.02281134401972873
0.02281134401972873
0.02281134401972873
0.02281134401972873
0.02342786683107275
0.02342786683107275
0.02342786683107275
0.02342786683107275
0.02342786683107275
0.02404438964241677
0.02404438964241677
0.02404438964241677
0.02404438964241677
0.02404438964241677
0.02466091245376079
0.02466091245376079
0.02466091245376079
0.02466091245376079
0.02466091245376079
0.02527743526510481
0.02527743526510481
0.02527743526510481
0.02527743526510481
0.02527743526510481
0.025893958076448828
0.025893958076448828
0.025893958076448828
0.025893958076448828
0.025893958076448828
0.02651048088779285
0.02651048088779285
0.02651048088779285
0.02651048088779285
0.02651048088779285
0.027127003699136867
0.027127003699136867
0.027127003699136867
0.027127003699136867
0.027127003699136867
0.027743526510480888
0.027743526510480888
0.027743526510480888
0.027743526510480888
0.027743526510480888
0.02836004932182491
0.02836004932182491
0.02836004932182491
0.02836004932182491
0.02836004932182491
0.028976572133168926
0.028976572133168926
0.028976572133168926
0.028976572133168926
0.028976572133168926
0.029593094944512947
0.029593094944512947
0.029593094944512947
0.029593094944512947
0.029593094944512947
0.03020961775585697
0.03020961775585697
0.03020961775585697
0.03020961775585697
0.03020961775585697
0.030826140567200986
0.030826140567200986
0.030826140567200986
0.030826140567200986
0.030826140567200986
0.031442663378545004
0.031442663378545004
0.031442663378545004
0.031442663378545004
0.031442663378545004
0.032059186189889025
0.032059186189889025
0.032059186189889025
0.032059186189889025
0.032059186189889025
0.032675709001233046
0.032675709001233046
0.032675709001233046
0.032675709001233046
0.032675709001233046
0.03329223181257707
0.03329223181257707
0.03329223181257707
0.03329223181257707
0.03329223181257707
0.03390875462392109
0.03390875462392109
0.03390875462392109
0.03390875462392109
0.03390875462392109
0.0345252774352651
0.0345252774352651
0.0345252774352651
0.0345252774352651
0.0345252774352651
0.03514180024660912
0.03514180024660912
0.03514180024660912
0.03514180024660912
0.03514180024660912
0.035758323057953144
0.035758323057953144
0.035758323057953144
0.035758323057953144
0.035758323057953144
0.036374845869297165
0.036374845869297165
0.036374845869297165
0.036374845869297165
0.036374845869297165
0.036991368680641186
0.036991368680641186
0.036991368680641186
0.036991368680641186
0.036991368680641186
0.0376078914919852
0.0376078914919852
0.0376078914919852
0.0376078914919852
0.0376078914919852
0.03822441430332922
0.03822441430332922
0.03822441430332922
0.03822441430332922
0.03822441430332922
0.03884093711467324
0.03884093711467324
0.03884093711467324
0.03884093711467324
0.03884093711467324
0.03945745992601726
0.03945745992601726
0.03945745992601726
0.03945745992601726
0.03945745992601726
0.040073982737361284
0.040073982737361284
0.040073982737361284
0.040073982737361284
0.040073982737361284
0.040690505548705305
0.040690505548705305
0.040690505548705305
0.040690505548705305
0.040690505548705305
0.04130702836004932
0.04130702836004932
0.04130702836004932
0.04130702836004932
0.04130702836004932
0.04192355117139334
0.04192355117139334
0.04192355117139334
0.04192355117139334
0.04192355117139334
0.04254007398273736
0.04254007398273736
0.04254007398273736
0.04254007398273736
0.04254007398273736
0.04315659679408138
0.04315659679408138
0.04315659679408138
0.04315659679408138
0.04315659679408138
0.043773119605425403
0.043773119605425403
0.043773119605425403
0.043773119605425403
0.043773119605425403
0.04438964241676942
0.04438964241676942
0.04438964241676942
0.04438964241676942
0.04438964241676942
0.04500616522811344
0.04500616522811344
0.04500616522811344
0.04500616522811344
0.04500616522811344
0.04562268803945746
0.04562268803945746
0.04562268803945746
0.04562268803945746
0.04562268803945746
0.04623921085080148
0.04623921085080148
0.04623921085080148
0.04623921085080148
0.04623921085080148
0.0468557336621455
0.0468557336621455
0.0468557336621455
0.0468557336621455
0.0468557336621455
0.047472256473489516
0.047472256473489516
0.047472256473489516
0.047472256473489516
0.047472256473489516
0.04808877928483354
0.04808877928483354
0.04808877928483354
0.04808877928483354
0.04808877928483354
0.04870530209617756
0.04870530209617756
0.04870530209617756
0.04870530209617756
0.04870530209617756
0.04932182490752158
0.04932182490752158
0.04932182490752158
0.04932182490752158
0.04932182490752158
0.0499383477188656
0.0499383477188656
0.0499383477188656
0.0499383477188656
0.0499383477188656
0.05055487053020962
0.05055487053020962
0.05055487053020962
0.05055487053020962
0.05055487053020962
0.051171393341553635
0.051171393341553635
0.051171393341553635
0.051171393341553635
0.051171393341553635
0.051787916152897656
0.051787916152897656
0.051787916152897656
0.051787916152897656
0.051787916152897656
0.05240443896424168
0.05240443896424168
0.05240443896424168
0.05240443896424168
0.05240443896424168
0.0530209617755857
0.0530209617755857
0.0530209617755857
0.0530209617755857
0.0530209617755857
0.05363748458692972
0.05363748458692972
0.05363748458692972
0.05363748458692972
0.05363748458692972
0.05425400739827373
0.05425400739827373
0.05425400739827373
0.05425400739827373
0.05425400739827373
0.054870530209617754
0.054870530209617754
0.054870530209617754
0.054870530209617754
0.054870530209617754
0.055487053020961775
0.055487053020961775
0.055487053020961775
0.055487053020961775
0.055487053020961775
0.056103575832305796
0.056103575832305796
0.056103575832305796
0.056103575832305796
0.056103575832305796
0.05672009864364982
0.05672009864364982
0.05672009864364982
0.05672009864364982
0.05672009864364982
0.05733662145499383
0.05733662145499383
0.05733662145499383
0.05733662145499383
0.05733662145499383
0.05795314426633785
0.05795314426633785
0.05795314426633785
0.05795314426633785
0.05795314426633785
0.058569667077681874
0.058569667077681874
0.058569667077681874
0.058569667077681874
0.058569667077681874
0.059186189889025895
0.059186189889025895
0.059186189889025895
0.059186189889025895
0.059186189889025895
0.059802712700369916
0.059802712700369916
0.059802712700369916
0.059802712700369916
0.059802712700369916
0.06041923551171394
0.06041923551171394
0.06041923551171394
0.06041923551171394
0.06041923551171394
0.06103575832305795
0.06103575832305795
0.06103575832305795
0.06103575832305795
0.06103575832305795
0.06165228113440197
0.06165228113440197
0.06165228113440197
0.06165228113440197
0.06165228113440197
0.06226880394574599
0.06226880394574599
0.06226880394574599
0.06226880394574599
0.06226880394574599
0.06288532675709001
0.06288532675709001
0.06288532675709001
0.06288532675709001
0.06288532675709001
0.06350184956843404
0.06350184956843404
0.06350184956843404
0.06350184956843404
0.06350184956843404
0.06411837237977805
0.06411837237977805
0.06411837237977805
0.06411837237977805
0.06411837237977805
0.06473489519112208
0.06473489519112208
0.06473489519112208
0.06473489519112208
0.06473489519112208
0.06535141800246609
0.06535141800246609
0.06535141800246609
0.06535141800246609
0.06535141800246609
0.0659679408138101
0.0659679408138101
0.0659679408138101
0.0659679408138101
0.0659679408138101
0.06658446362515413
0.06658446362515413
0.06658446362515413
0.06658446362515413
0.06658446362515413
0.06720098643649815
0.06720098643649815
0.06720098643649815
0.06720098643649815
0.06720098643649815
0.06781750924784218
0.06781750924784218
0.06781750924784218
0.06781750924784218
0.06781750924784218
0.06843403205918619
0.06843403205918619
0.06843403205918619
0.06843403205918619
0.06843403205918619
0.0690505548705302
0.0690505548705302
0.0690505548705302
0.0690505548705302
0.0690505548705302
0.06966707768187423
0.06966707768187423
0.06966707768187423
0.06966707768187423
0.06966707768187423
0.07028360049321825
0.07028360049321825
0.07028360049321825
0.07028360049321825
0.07028360049321825
0.07090012330456227
0.07090012330456227
0.07090012330456227
0.07090012330456227
0.07090012330456227
0.07151664611590629
0.07151664611590629
0.07151664611590629
0.07151664611590629
0.07151664611590629
0.0721331689272503
0.0721331689272503
0.0721331689272503
0.0721331689272503
0.0721331689272503
0.07274969173859433
0.07274969173859433
0.07274969173859433
0.07274969173859433
0.07274969173859433
0.07336621454993834
0.07336621454993834
0.07336621454993834
0.07336621454993834
0.07336621454993834
0.07398273736128237
0.07398273736128237
0.07398273736128237
0.07398273736128237
0.07398273736128237
0.07459926017262639
0.07459926017262639
0.07459926017262639
0.07459926017262639
0.07459926017262639
0.0752157829839704
0.0752157829839704
0.0752157829839704
0.0752157829839704
0.0752157829839704
0.07583230579531443
0.07583230579531443
0.07583230579531443
0.07583230579531443
0.07583230579531443
0.07644882860665844
0.07644882860665844
0.07644882860665844
0.07644882860665844
0.07644882860665844
0.07706535141800247
0.07706535141800247
0.07706535141800247
0.07706535141800247
0.07706535141800247
0.07768187422934648
0.07768187422934648
0.07768187422934648
0.07768187422934648
0.07768187422934648
0.07829839704069051
0.07829839704069051
0.07829839704069051
0.07829839704069051
0.07829839704069051
0.07891491985203453
0.07891491985203453
0.07891491985203453
0.07891491985203453
0.07891491985203453
0.07953144266337854
0.07953144266337854
0.07953144266337854
0.07953144266337854
0.07953144266337854
0.08014796547472257
0.08014796547472257
0.08014796547472257
0.08014796547472257
0.08014796547472257
0.08076448828606658
0.08076448828606658
0.08076448828606658
0.08076448828606658
0.08076448828606658
0.08138101109741061
0.08138101109741061
0.08138101109741061
0.08138101109741061
0.08138101109741061
0.08199753390875462
0.08199753390875462
0.08199753390875462
0.08199753390875462
0.08199753390875462
0.08261405672009864
0.08261405672009864
0.08261405672009864
0.08261405672009864
0.08261405672009864
0.08323057953144267
0.08323057953144267
0.08323057953144267
0.08323057953144267
0.08323057953144267
0.08384710234278668
0.08384710234278668
0.08384710234278668
0.08384710234278668
0.08384710234278668
0.08446362515413071
0.08446362515413071
0.08446362515413071
0.08446362515413071
0.08446362515413071
0.08508014796547472
0.08508014796547472
0.08508014796547472
0.08508014796547472
0.08508014796547472
0.08569667077681874
0.08569667077681874
0.08569667077681874
0.08569667077681874
0.08569667077681874
0.08631319358816276
0.08631319358816276
0.08631319358816276
0.08631319358816276
0.08631319358816276
0.08692971639950678
0.08692971639950678
0.08692971639950678
0.08692971639950678
0.08692971639950678
0.08754623921085081
0.08754623921085081
0.08754623921085081
0.08754623921085081
0.08754623921085081
0.08816276202219482
0.08816276202219482
0.08816276202219482
0.08816276202219482
0.08816276202219482
0.08877928483353884
0.08877928483353884
0.08877928483353884
0.08877928483353884
0.08877928483353884
0.08939580764488286
0.08939580764488286
0.08939580764488286
0.08939580764488286
0.08939580764488286
0.09001233045622688
0.09001233045622688
0.09001233045622688
0.09001233045622688
0.09001233045622688
0.0906288532675709
0.0906288532675709
0.0906288532675709
0.0906288532675709
0.0906288532675709
0.09124537607891492
0.09124537607891492
0.09124537607891492
0.09124537607891492
0.09124537607891492
0.09186189889025893
0.09186189889025893
0.09186189889025893
0.09186189889025893
0.09186189889025893
0.09247842170160296
0.09247842170160296
0.09247842170160296
0.09247842170160296
0.09247842170160296
0.09309494451294698
0.09309494451294698
0.09309494451294698
0.09309494451294698
0.09309494451294698
0.093711467324291
0.093711467324291
0.093711467324291
0.093711467324291
0.093711467324291
0.09432799013563502
0.09432799013563502
0.09432799013563502
0.09432799013563502
0.09432799013563502
0.09494451294697903
0.09494451294697903
0.09494451294697903
0.09494451294697903
0.09494451294697903
0.09556103575832306
0.09556103575832306
0.09556103575832306
0.09556103575832306
0.09556103575832306
0.09617755856966707
0.09617755856966707
0.09617755856966707
0.09617755856966707
0.09617755856966707
0.0967940813810111
0.0967940813810111
0.0967940813810111
0.0967940813810111
0.0967940813810111
0.09741060419235512
0.09741060419235512
0.09741060419235512
0.09741060419235512
0.09741060419235512
0.09802712700369914
0.09802712700369914
0.09802712700369914
0.09802712700369914
0.09802712700369914
0.09864364981504316
0.09864364981504316
0.09864364981504316
0.09864364981504316
0.09864364981504316
0.09926017262638717
0.09926017262638717
0.09926017262638717
0.09926017262638717
0.09926017262638717
0.0998766954377312
0.0998766954377312
0.0998766954377312
0.0998766954377312
0.0998766954377312
0.10049321824907521
0.10049321824907521
0.10049321824907521
0.10049321824907521
0.10049321824907521
0.10110974106041924
0.10110974106041924
0.10110974106041924
0.10110974106041924
0.10110974106041924
0.10172626387176326
0.10172626387176326
0.10172626387176326
0.10172626387176326
0.10172626387176326
0.10234278668310727
0.10234278668310727
0.10234278668310727
0.10234278668310727
0.10234278668310727
0.1029593094944513
0.1029593094944513
0.1029593094944513
0.1029593094944513
0.1029593094944513
0.10357583230579531
0.10357583230579531
0.10357583230579531
0.10357583230579531
0.10357583230579531
0.10419235511713934
0.10419235511713934
0.10419235511713934
0.10419235511713934
0.10419235511713934
0.10480887792848335
0.10480887792848335
0.10480887792848335
0.10480887792848335
0.10480887792848335
0.10542540073982737
0.10542540073982737
0.10542540073982737
0.10542540073982737
0.10542540073982737
0.1060419235511714
0.1060419235511714
0.1060419235511714
0.1060419235511714
0.1060419235511714
0.10665844636251541
0.10665844636251541
0.10665844636251541
0.10665844636251541
0.10665844636251541
0.10727496917385944
0.10727496917385944
0.10727496917385944
0.10727496917385944
0.10727496917385944
0.10789149198520345
0.10789149198520345
0.10789149198520345
0.10789149198520345
0.10789149198520345
0.10850801479654747
0.10850801479654747
0.10850801479654747
0.10850801479654747
0.10850801479654747
0.1091245376078915
0.1091245376078915
0.1091245376078915
0.1091245376078915
0.1091245376078915
0.10974106041923551
0.10974106041923551
0.10974106041923551
0.10974106041923551
0.10974106041923551
0.11035758323057954
0.11035758323057954
0.11035758323057954
0.11035758323057954
0.11035758323057954
0.11097410604192355
0.11097410604192355
0.11097410604192355
0.11097410604192355
0.11097410604192355
0.11159062885326756
0.11159062885326756
0.11159062885326756
0.11159062885326756
0.11159062885326756
0.11220715166461159
0.11220715166461159
0.11220715166461159
0.11220715166461159
0.11220715166461159
0.11282367447595561
0.11282367447595561
0.11282367447595561
0.11282367447595561
0.11282367447595561
0.11344019728729964
0.11344019728729964
0.11344019728729964
0.11344019728729964
0.11344019728729964
0.11405672009864365
0.11405672009864365
0.11405672009864365
0.11405672009864365
0.11405672009864365
0.11467324290998766
0.11467324290998766
0.11467324290998766
0.11467324290998766
0.11467324290998766
0.11528976572133169
0.11528976572133169
0.11528976572133169
0.11528976572133169
0.11528976572133169
0.1159062885326757
0.1159062885326757
0.1159062885326757
0.1159062885326757
0.1159062885326757
0.11652281134401973
0.11652281134401973
0.11652281134401973
0.11652281134401973
0.11652281134401973
0.11713933415536375
0.11713933415536375
0.11713933415536375
0.11713933415536375
0.11713933415536375
0.11775585696670776
0.11775585696670776
0.11775585696670776
0.11775585696670776
0.11775585696670776
0.11837237977805179
0.11837237977805179
0.11837237977805179
0.11837237977805179
0.11837237977805179
0.1189889025893958
0.1189889025893958
0.1189889025893958
0.1189889025893958
0.1189889025893958
0.11960542540073983
0.11960542540073983
0.11960542540073983
0.11960542540073983
0.11960542540073983
0.12022194821208385
0.12022194821208385
0.12022194821208385
0.12022194821208385
0.12022194821208385
0.12083847102342787
0.12083847102342787
0.12083847102342787
0.12083847102342787
0.12083847102342787
0.12145499383477189
0.12145499383477189
0.12145499383477189
0.12145499383477189
0.12145499383477189
0.1220715166461159
0.1220715166461159
0.1220715166461159
0.1220715166461159
0.1220715166461159
0.12268803945745993
0.12268803945745993